FoamFile
{
 version 2.0;
 format ascii;
 class polyBoundaryMesh;
 location "constant/polyMesh";
 object boundary;
}

(outlet {type wall; nFaces 5; startFace 10;})
